 Variables ="x", "y", "u", "v", "psi", "w"
      ZONE
   i =  201   , j =  201

